# Force coefficients
# liftDir    : (0.000000e+00 1.000000e+00 0.000000e+00)
# dragDir    : (1.000000e+00 0.000000e+00 0.000000e+00)
# pitchAxis  : (0.000000e+00 0.000000e+00 1.000000e+00)
# magUInf    : 1.000000e+01
# lRef       : 1.575750e-04
# Aref       : 2.482830e-09
# CofR       : (0.000000e+00 0.000000e+00 0.000000e+00)
# Time       	Cm           	Cd           	Cl           	Cl(f)        	Cl(r)        	Cm	Cd	Cl	Cl(f)	Cl(r)
2.000000e-07	3.621253e-06	6.067277e+01	5.835561e-05	3.279906e-05	2.555655e-05
4.000000e-07	-6.708668e-05	4.996611e+01	-3.191917e-04	-2.266826e-04	-9.250919e-05
6.000000e-07	-6.657164e-05	2.925272e+01	-7.450249e-05	-1.038229e-04	2.932040e-05
8.000000e-07	-5.172487e-05	1.415903e+01	-5.246940e-05	-7.795957e-05	2.549017e-05
